Title: * spice3 file created from inverter_manual.ext - technology: sky130a
Date: Sat Feb 11 15:34:07  2023
Plotname: Transient Analysis
Flags: real
No. Variables: 2
No. Points: 6080
Variables:
	0	time	time
	1	v(vout)	voltage
Values:
 0	0.000000000000000e+00
	1.800001776561038e+00

 1	1.000000000000000e-13
	1.800001774210539e+00

 2	2.000000000000000e-13
	1.800001771928142e+00

 3	4.000000000000000e-13
	1.800001767396406e+00

 4	8.000000000000000e-13
	1.800001758391418e+00

 5	1.600000000000000e-12
	1.800001740502356e+00

 6	3.200000000000000e-12
	1.800001705266228e+00

 7	6.400000000000000e-12
	1.800001636858486e+00

 8	1.280000000000000e-11
	1.800001507948049e+00

 9	2.280000000000000e-11
	1.800001325958250e+00

 10	3.280000000000000e-11
	1.800001165393319e+00

 11	4.280000000000000e-11
	1.800001023721231e+00

 12	5.279999999999999e-11
	1.800000898728584e+00

 13	6.279999999999999e-11
	1.800000788442179e+00

 14	7.280000000000000e-11
	1.800000691141071e+00

 15	8.280000000000000e-11
	1.800000605287140e+00

 16	9.280000000000001e-11
	1.800000529542737e+00

 17	1.028000000000000e-10
	1.800000462708496e+00

 18	1.128000000000000e-10
	1.800000403745080e+00

 19	1.228000000000000e-10
	1.800000351716897e+00

 20	1.328000000000000e-10
	1.800000305816785e+00

 21	1.428000000000000e-10
	1.800000265314523e+00

 22	1.528000000000000e-10
	1.800000229583630e+00

 23	1.628000000000000e-10
	1.800000198053832e+00

 24	1.728000000000000e-10
	1.800000170239249e+00

 25	1.828000000000000e-10
	1.800000145694161e+00

 26	1.927999999999999e-10
	1.800000124042086e+00

 27	2.027999999999999e-10
	1.800000104934316e+00

 28	2.127999999999999e-10
	1.800000088079487e+00

 29	2.227999999999999e-10
	1.800000073204460e+00

 30	2.327999999999999e-10
	1.800000060084078e+00

 31	2.427999999999999e-10
	1.800000048504078e+00

 32	2.527999999999999e-10
	1.800000038290799e+00

 33	2.628000000000000e-10
	1.800000029275856e+00

 34	2.728000000000000e-10
	1.800000021325625e+00

 35	2.828000000000000e-10
	1.800000014307481e+00

 36	2.928000000000000e-10
	1.800000008118928e+00

 37	3.028000000000000e-10
	1.800000002655219e+00

 38	3.128000000000000e-10
	1.799999998051811e+00

 39	3.228000000000001e-10
	1.799999994200384e+00

 40	3.328000000000001e-10
	1.799999990760452e+00

 41	3.428000000000001e-10
	1.799999987681479e+00

 42	3.528000000000001e-10
	1.799999984932085e+00

 43	3.628000000000001e-10
	1.799999982470581e+00

 44	3.728000000000001e-10
	1.799999980273166e+00

 45	3.828000000000002e-10
	1.799999978305246e+00

 46	3.928000000000002e-10
	1.799999976549046e+00

 47	4.028000000000002e-10
	1.799999974975680e+00

 48	4.128000000000002e-10
	1.799999973572159e+00

 49	4.228000000000002e-10
	1.799999972314188e+00

 50	4.328000000000003e-10
	1.799999971192575e+00

 51	4.428000000000003e-10
	1.799999970186723e+00

 52	4.528000000000003e-10
	1.799999969290448e+00

 53	4.628000000000003e-10
	1.799999968486134e+00

 54	4.728000000000003e-10
	1.799999967769977e+00

 55	4.828000000000002e-10
	1.799999967126769e+00

 56	4.928000000000002e-10
	1.799999966554577e+00

 57	5.028000000000002e-10
	1.799999966040154e+00

 58	5.128000000000001e-10
	1.799999965583041e+00

 59	5.228000000000001e-10
	1.799999965171573e+00

 60	5.328000000000001e-10
	1.799999964806443e+00

 61	5.428000000000000e-10
	1.799999964477277e+00

 62	5.528000000000000e-10
	1.799999964185665e+00

 63	5.628000000000000e-10
	1.799999963922292e+00

 64	5.727999999999999e-10
	1.799999963689439e+00

 65	5.827999999999999e-10
	1.799999963478666e+00

 66	5.927999999999999e-10
	1.799999963292781e+00

 67	6.027999999999998e-10
	1.799999963124056e+00

 68	6.127999999999998e-10
	1.799999962975706e+00

 69	6.227999999999998e-10
	1.799999962840601e+00

 70	6.327999999999997e-10
	1.799999962722250e+00

 71	6.427999999999997e-10
	1.799999962614023e+00

 72	6.527999999999996e-10
	1.799999962519646e+00

 73	6.627999999999996e-10
	1.799999962432909e+00

 74	6.727999999999996e-10
	1.799999962357692e+00

 75	6.827999999999995e-10
	1.799999962288140e+00

 76	6.927999999999995e-10
	1.799999962228232e+00

 77	7.027999999999995e-10
	1.799999962172420e+00

 78	7.127999999999994e-10
	1.799999962124744e+00

 79	7.227999999999994e-10
	1.799999962079920e+00

 80	7.327999999999994e-10
	1.799999962042018e+00

 81	7.427999999999993e-10
	1.799999962005985e+00

 82	7.527999999999993e-10
	1.799999961975892e+00

 83	7.627999999999993e-10
	1.799999961946888e+00

 84	7.727999999999992e-10
	1.799999961923030e+00

 85	7.827999999999992e-10
	1.799999961899647e+00

 86	7.927999999999992e-10
	1.799999961880770e+00

 87	8.027999999999991e-10
	1.799999961861888e+00

 88	8.127999999999991e-10
	1.799999961846988e+00

 89	8.227999999999991e-10
	1.799999961831707e+00

 90	8.327999999999990e-10
	1.799999961819980e+00

 91	8.427999999999990e-10
	1.799999961807582e+00

 92	8.527999999999990e-10
	1.799999961798392e+00

 93	8.627999999999989e-10
	1.799999961788304e+00

 94	8.727999999999989e-10
	1.799999961781134e+00

 95	8.827999999999989e-10
	1.799999961772894e+00

 96	8.927999999999988e-10
	1.799999961767336e+00

 97	9.027999999999988e-10
	1.799999961760578e+00

 98	9.127999999999988e-10
	1.799999961756305e+00

 99	9.227999999999987e-10
	1.799999961750737e+00

 100	9.327999999999987e-10
	1.799999961747486e+00

 101	9.427999999999986e-10
	1.799999961742869e+00

 102	9.527999999999986e-10
	1.799999961740434e+00

 103	9.627999999999986e-10
	1.799999961736585e+00

 104	9.727999999999985e-10
	1.799999961734798e+00

 105	9.827999999999985e-10
	1.799999961731562e+00

 106	9.927999999999985e-10
	1.799999961730289e+00

 107	1.000000000000000e-09
	1.799999961728061e+00

 108	1.001000000000000e-09
	1.801597496860759e+00

 109	1.003000000000000e-09
	1.804734292485423e+00

 110	1.007000000000000e-09
	1.810768739639998e+00

 111	1.015000000000000e-09
	1.821960211383159e+00

 112	1.025000000000000e-09
	1.834473433961866e+00

 113	1.035000000000000e-09
	1.845568598403151e+00

 114	1.045000000000000e-09
	1.855454968458145e+00

 115	1.055000000000000e-09
	1.864315460517499e+00

 116	1.065000000000000e-09
	1.872303644673047e+00

 117	1.075000000000000e-09
	1.879554814665148e+00

 118	1.085000000000000e-09
	1.886182161822086e+00

 119	1.095000000000000e-09
	1.892286684267482e+00

 120	1.105000000000000e-09
	1.897952570622309e+00

 121	1.115000000000000e-09
	1.903256107371827e+00

 122	1.125000000000000e-09
	1.908260523946666e+00

 123	1.135000000000000e-09
	1.913024132007812e+00

 124	1.145000000000000e-09
	1.917594806889421e+00

 125	1.155000000000000e-09
	1.922017532264093e+00

 126	1.165000000000000e-09
	1.926328645461392e+00

 127	1.175000000000000e-09
	1.930562924134535e+00

 128	1.185000000000000e-09
	1.934747695462608e+00

 129	1.194999999999999e-09
	1.938909577369733e+00

 130	1.204999999999999e-09
	1.943068532526128e+00

 131	1.214999999999999e-09
	1.947244352738505e+00

 132	1.224999999999999e-09
	1.951450715433326e+00

 133	1.234999999999999e-09
	1.955701464835569e+00

 134	1.244999999999999e-09
	1.960004692130398e+00

 135	1.254999999999999e-09
	1.964368815562070e+00

 136	1.264999999999999e-09
	1.968796652649970e+00

 137	1.274999999999999e-09
	1.973291233816744e+00

 138	1.284999999999999e-09
	1.977849769467485e+00

 139	1.294999999999999e-09
	1.982469064793635e+00

 140	1.304999999999999e-09
	1.987139253297020e+00

 141	1.314999999999999e-09
	1.991848722117126e+00

 142	1.324999999999999e-09
	1.996577671495837e+00

 143	1.334999999999999e-09
	2.001302834305172e+00

 144	1.344999999999999e-09
	2.005991454269354e+00

 145	1.354999999999999e-09
	2.010606610706283e+00

 146	1.364999999999999e-09
	2.015102459727486e+00

 147	1.374999999999999e-09
	2.019430705994609e+00

 148	1.384999999999999e-09
	2.023537110011507e+00

 149	1.394999999999999e-09
	2.027368482328233e+00

 150	1.404999999999999e-09
	2.030869390705721e+00

 151	1.414999999999999e-09
	2.033988478662789e+00

 152	1.424999999999999e-09
	2.036674367338627e+00

 153	1.434999999999999e-09
	2.038880673165367e+00

 154	1.444999999999999e-09
	2.040560876094299e+00

 155	1.454999999999999e-09
	2.041672107797849e+00

 156	1.464999999999999e-09
	2.042169182487789e+00

 157	1.474999999999999e-09
	2.042008271058341e+00

 158	1.484999999999998e-09
	2.041138197174825e+00

 159	1.494999999999998e-09
	2.039502107065676e+00

 160	1.504999999999998e-09
	2.037031510204546e+00

 161	1.514999999999998e-09
	2.033645014068837e+00

 162	1.524999999999998e-09
	2.029238247475492e+00

 163	1.534999999999998e-09
	2.023680436271595e+00

 164	1.544999999999998e-09
	2.016799826215964e+00

 165	1.554999999999998e-09
	2.008373086834993e+00

 166	1.564999999999998e-09
	1.998099439107025e+00

 167	1.574999999999998e-09
	1.985571766641176e+00

 168	1.584999999999998e-09
	1.970221086901195e+00

 169	1.594999999999998e-09
	1.951221256364188e+00

 170	1.604999999999998e-09
	1.927357842775941e+00

 171	1.614999999999998e-09
	1.896780247243724e+00

 172	1.624999999999998e-09
	1.856452699520034e+00

 173	1.634999999999998e-09
	1.798625642441706e+00

 174	1.644999999999998e-09
	1.729698522765025e+00

 175	1.654999999999998e-09
	1.635351173423101e+00

 176	1.664999999999998e-09
	1.532170265800546e+00

 177	1.674999999999998e-09
	1.421343277910071e+00

 178	1.684999999999998e-09
	1.303203495978639e+00

 179	1.694999999999998e-09
	1.177954216455682e+00

 180	1.704999999999998e-09
	1.046022162721875e+00

 181	1.714999999999998e-09
	9.083155274220809e-01

 182	1.724999999999998e-09
	7.672753128497068e-01

 183	1.734999999999998e-09
	6.306772241177331e-01

 184	1.744999999999998e-09
	5.151901345150383e-01

 185	1.754999999999998e-09
	4.257567449846879e-01

 186	1.764999999999998e-09
	3.545128311996053e-01

 187	1.774999999999997e-09
	2.959721657151035e-01

 188	1.784999999999997e-09
	2.473611870623626e-01

 189	1.794999999999997e-09
	2.070462791143581e-01

 190	1.804999999999997e-09
	1.738300023397810e-01

 191	1.814999999999997e-09
	1.466248966180285e-01

 192	1.824999999999997e-09
	1.245294132236811e-01

 193	1.834999999999997e-09
	1.066847218252129e-01

 194	1.844999999999997e-09
	9.237860475020561e-02

 195	1.854999999999997e-09
	8.094735424128649e-02

 196	1.864999999999997e-09
	7.186517333532189e-02

 197	1.874999999999997e-09
	6.464889653110471e-02

 198	1.884999999999998e-09
	5.893861259636652e-02

 199	1.894999999999998e-09
	5.440092732640822e-02

 200	1.904999999999998e-09
	5.080334606949976e-02

 201	1.914999999999998e-09
	4.792221307421873e-02

 202	1.924999999999998e-09
	4.561760435817983e-02

 203	1.934999999999998e-09
	4.374141422252720e-02

 204	1.944999999999999e-09
	4.221590127027722e-02

 205	1.954999999999999e-09
	4.094228377516891e-02

 206	1.964999999999999e-09
	3.988280335326398e-02

 207	1.974999999999999e-09
	3.896957873202933e-02

 208	1.984999999999999e-09
	3.818972917361432e-02

 209	1.994999999999999e-09
	3.749407048749025e-02

 210	2.000000000000000e-09
	3.718447377841720e-02

 211	2.001000000000000e-09
	3.594735259384186e-02

 212	2.003000000000000e-09
	3.358215160943014e-02

 213	2.007000000000000e-09
	2.930208522846880e-02

 214	2.015000000000000e-09
	2.226926978498670e-02

 215	2.025000000000000e-09
	1.577317479883378e-02

 216	2.035000000000001e-09
	1.116408205438241e-02

 217	2.045000000000001e-09
	7.899254828295567e-03

 218	2.055000000000001e-09
	5.586822236502537e-03

 219	2.065000000000001e-09
	3.951305311888560e-03

 220	2.075000000000001e-09
	2.793281635501996e-03

 221	2.085000000000001e-09
	1.975362144590979e-03

 222	2.095000000000002e-09
	1.395961192913414e-03

 223	2.105000000000002e-09
	9.873346160213920e-04

 224	2.115000000000002e-09
	6.974406758060576e-04

 225	2.125000000000002e-09
	4.934968483641056e-04

 226	2.135000000000002e-09
	3.483555543846771e-04

 227	2.145000000000002e-09
	2.467152665859184e-04

 228	2.155000000000003e-09
	1.739283937726876e-04

 229	2.165000000000003e-09
	1.234038643925478e-04

 230	2.175000000000003e-09
	8.678094633454643e-05

 231	2.185000000000003e-09
	6.178904327904785e-05

 232	2.195000000000003e-09
	4.324382675868821e-05

 233	2.205000000000003e-09
	3.100094408129417e-05

 234	2.215000000000004e-09
	2.149583093346206e-05

 235	2.225000000000004e-09
	1.561490729052972e-05

 236	2.235000000000004e-09
	1.063400427223110e-05

 237	2.245000000000004e-09
	7.924182541770349e-06

 238	2.255000000000004e-09
	5.210919684509805e-06

 239	2.265000000000004e-09
	4.078291514364517e-06

 240	2.275000000000005e-09
	2.504946928286043e-06

 241	2.285000000000005e-09
	2.153467170417008e-06

 242	2.295000000000005e-09
	1.156329056487910e-06

 243	2.305000000000005e-09
	1.188565348994296e-06

 244	2.315000000000005e-09
	4.857228770795465e-07

 245	2.325000000000006e-09
	7.749990264897238e-07

 246	2.335000000000006e-09
	2.765032900567778e-07

 247	2.345000000000006e-09
	6.002516904678267e-07

 248	2.355000000000006e-09
	1.472129407776664e-07

 249	2.365000000000006e-09
	4.882325978457785e-07

 250	2.375000000000006e-09
	6.767579693815615e-08

 251	2.385000000000007e-09
	4.154192176517979e-07

 252	2.395000000000007e-09
	1.909448900651649e-08

 253	2.405000000000007e-09
	3.671515640090781e-07

 254	2.415000000000007e-09
	-1.023972031769162e-08

 255	2.425000000000007e-09
	3.363763342184137e-07

 256	2.435000000000007e-09
	-2.593731302555233e-08

 257	2.445000000000008e-09
	3.177159992643938e-07

 258	2.455000000000008e-09
	-3.227595736883168e-08

 259	2.465000000000008e-09
	3.047959226611466e-07

 260	2.475000000000008e-09
	-3.435237829508860e-08

 261	2.485000000000008e-09
	2.946820954940062e-07

 262	2.495000000000008e-09
	-3.450444277783005e-08

 263	2.505000000000009e-09
	2.860201183968593e-07

 264	2.515000000000009e-09
	-3.380378478189169e-08

 265	2.525000000000009e-09
	2.781809815598916e-07

 266	2.535000000000009e-09
	-3.274093296526085e-08

 267	2.545000000000009e-09
	2.708689745156381e-07

 268	2.555000000000009e-09
	-3.153974013853279e-08

 269	2.565000000000010e-09
	2.639416978352116e-07

 270	2.575000000000010e-09
	-3.030172377360325e-08

 271	2.585000000000010e-09
	2.573274402347662e-07

 272	2.595000000000010e-09
	-2.907231085840656e-08

 273	2.605000000000010e-09
	2.509872300336242e-07

 274	2.615000000000011e-09
	-2.787123428419616e-08

 275	2.625000000000011e-09
	2.448974138330037e-07

 276	2.635000000000011e-09
	-2.670648524196815e-08

 277	2.645000000000011e-09
	2.390416404301390e-07

 278	2.655000000000011e-09
	-2.558071508023342e-08

 279	2.665000000000011e-09
	2.334071650209702e-07

 280	2.675000000000012e-09
	-2.449417997375725e-08

 281	2.685000000000012e-09
	2.279831438291502e-07

 282	2.695000000000012e-09
	-2.344607120931419e-08

 283	2.705000000000012e-09
	2.227598501171069e-07

 284	2.715000000000012e-09
	-2.243513767201569e-08

 285	2.725000000000012e-09
	2.177282777586865e-07

 286	2.735000000000013e-09
	-2.145997081132705e-08

 287	2.745000000000013e-09
	2.128799737784819e-07

 288	2.755000000000013e-09
	-2.051912279192383e-08

 289	2.765000000000013e-09
	2.082069382061445e-07

 290	2.775000000000013e-09
	-1.961116870381045e-08

 291	2.785000000000013e-09
	2.037015711643189e-07

 292	2.795000000000014e-09
	-1.873472474848166e-08

 293	2.805000000000014e-09
	1.993566423985308e-07

 294	2.815000000000014e-09
	-1.788846580308182e-08

 295	2.825000000000014e-09
	1.951652566297977e-07

 296	2.835000000000014e-09
	-1.707112116511065e-08

 297	2.845000000000014e-09
	1.911208501279909e-07

 298	2.855000000000015e-09
	-1.628147605312158e-08

 299	2.865000000000015e-09
	1.872171618625814e-07

 300	2.875000000000015e-09
	-1.551837367018442e-08

 301	2.885000000000015e-09
	1.834482207750410e-07

 302	2.895000000000015e-09
	-1.478070568625416e-08

 303	2.905000000000016e-09
	1.798083315065210e-07

 304	2.915000000000016e-09
	-1.406742242715988e-08

 305	2.925000000000016e-09
	1.762920624208500e-07

 306	2.935000000000016e-09
	-1.337751270394698e-08

 307	2.945000000000016e-09
	1.728942359554931e-07

 308	2.955000000000016e-09
	-1.271001651949628e-08

 309	2.965000000000017e-09
	1.696099080941941e-07

 310	2.975000000000017e-09
	-1.206401756499772e-08

 311	2.985000000000017e-09
	1.664343676707794e-07

 312	2.995000000000017e-09
	-1.143864101825572e-08

 313	3.005000000000017e-09
	1.633631087165057e-07

 314	3.015000000000017e-09
	-1.083304979192469e-08

 315	3.025000000000018e-09
	1.603918454830202e-07

 316	3.035000000000018e-09
	-1.024644705113586e-08

 317	3.045000000000018e-09
	1.575164797748029e-07

 318	3.055000000000018e-09
	-9.678068877813953e-09

 319	3.065000000000018e-09
	1.547331021675505e-07

 320	3.075000000000018e-09
	-9.127190954733872e-09

 321	3.085000000000019e-09
	1.520379781927289e-07

 322	3.095000000000019e-09
	-8.593115542957910e-09

 323	3.105000000000019e-09
	1.494275452263869e-07

 324	3.115000000000019e-09
	-8.075183921884226e-09

 325	3.125000000000019e-09
	1.468984016108502e-07

 326	3.135000000000019e-09
	-7.572761273596656e-09

 327	3.145000000000020e-09
	1.444472979303273e-07

 328	3.155000000000020e-09
	-7.085241609517957e-09

 329	3.165000000000020e-09
	1.420711328553988e-07

 330	3.175000000000020e-09
	-6.612045302144473e-09

 331	3.185000000000020e-09
	1.397669436245020e-07

 332	3.195000000000021e-09
	-6.152619805777888e-09

 333	3.205000000000021e-09
	1.375319035092894e-07

 334	3.215000000000021e-09
	-5.706437148767849e-09

 335	3.225000000000021e-09
	1.353633076619529e-07

 336	3.235000000000021e-09
	-5.272991879915290e-09

 337	3.245000000000021e-09
	1.332585715161154e-07

 338	3.255000000000022e-09
	-4.851804494421774e-09

 339	3.265000000000022e-09
	1.312152268597648e-07

 340	3.275000000000022e-09
	-4.442411323879524e-09

 341	3.285000000000022e-09
	1.292309167224526e-07

 342	3.295000000000022e-09
	-4.044368771811513e-09

 343	3.305000000000022e-09
	1.273033855195472e-07

 344	3.315000000000023e-09
	-3.657258635247734e-09

 345	3.325000000000023e-09
	1.254304792589245e-07

 346	3.335000000000023e-09
	-3.280673620951783e-09

 347	3.345000000000023e-09
	1.236101372516994e-07

 348	3.355000000000023e-09
	-2.914229005499034e-09

 349	3.365000000000023e-09
	1.218403877935377e-07

 350	3.375000000000024e-09
	-2.557555615533440e-09

 351	3.385000000000024e-09
	1.201193474466910e-07

 352	3.395000000000024e-09
	-2.210300963168437e-09

 353	3.405000000000024e-09
	1.184452161773931e-07

 354	3.415000000000024e-09
	-1.872123203676378e-09

 355	3.425000000000024e-09
	1.168162627027790e-07

 356	3.435000000000025e-09
	-1.542705530403283e-09

 357	3.445000000000025e-09
	1.152308446266374e-07

 358	3.455000000000025e-09
	-1.221728816531157e-09

 359	3.465000000000025e-09
	1.136873801340513e-07

 360	3.475000000000025e-09
	-9.088993879832464e-10

 361	3.485000000000025e-09
	1.121843598487553e-07

 362	3.495000000000026e-09
	-6.039342730785409e-10

 363	3.505000000000026e-09
	1.107203347473347e-07

 364	3.515000000000026e-09
	-3.065572533091813e-10

 365	3.525000000000026e-09
	1.092939237631670e-07

 366	3.535000000000026e-09
	-1.650909182588099e-11

 367	3.545000000000027e-09
	1.079037975451042e-07

 368	3.555000000000027e-09
	2.664610067554932e-10

 369	3.565000000000027e-09
	1.066029498128599e-07

 370	3.575000000000027e-09
	5.863678651353057e-10

 371	3.585000000000027e-09
	1.053715558267762e-07

 372	3.595000000000027e-09
	9.285618926764987e-10

 373	3.605000000000028e-09
	1.041935479745144e-07

 374	3.615000000000028e-09
	1.281331680625197e-09

 375	3.625000000000028e-09
	1.030585724000062e-07

 376	3.635000000000028e-09
	1.637478734741132e-09

 377	3.645000000000028e-09
	1.019598488700482e-07

 378	3.655000000000028e-09
	1.992626625652746e-09

 379	3.665000000000029e-09
	1.008928428371942e-07

 380	3.675000000000029e-09
	2.344148686152341e-09

 381	3.685000000000029e-09
	9.985442846255152e-08

 382	3.695000000000029e-09
	2.690508382473017e-09

 383	3.705000000000029e-09
	9.884237180901147e-08

 384	3.715000000000029e-09
	3.030836411821864e-09

 385	3.725000000000030e-09
	9.785500375221183e-08

 386	3.735000000000030e-09
	3.364678850602828e-09

 387	3.745000000000030e-09
	9.689101283575198e-08

 388	3.755000000000029e-09
	3.691837783552110e-09

 389	3.765000000000029e-09
	9.594933383378105e-08

 390	3.775000000000029e-09
	4.012278743841360e-09

 391	3.785000000000029e-09
	9.502906232362722e-08

 392	3.795000000000028e-09
	4.326052903526056e-09

 393	3.805000000000028e-09
	9.412938916573489e-08

 394	3.815000000000028e-09
	4.633262507977653e-09

 395	3.825000000000028e-09
	9.324958889650702e-08

 396	3.835000000000027e-09
	4.934053530330296e-09

 397	3.845000000000027e-09
	9.238899748216249e-08

 398	3.855000000000027e-09
	5.228581145405226e-09

 399	3.865000000000027e-09
	9.154698461167783e-08

 400	3.875000000000026e-09
	5.517008722659150e-09

 401	3.885000000000026e-09
	9.072296333497212e-08

 402	3.895000000000026e-09
	5.799507164689613e-09

 403	3.905000000000026e-09
	8.991637633447870e-08

 404	3.915000000000025e-09
	6.076240907242131e-09

 405	3.925000000000025e-09
	8.912668898478346e-08

 406	3.935000000000025e-09
	6.347375037683358e-09

 407	3.945000000000025e-09
	8.835338463143931e-08

 408	3.955000000000024e-09
	6.613060653259582e-09

 409	3.965000000000024e-09
	8.759597862398471e-08

 410	3.975000000000024e-09
	6.873462268699365e-09

 411	3.985000000000024e-09
	8.685400378252375e-08

 412	3.995000000000024e-09
	7.128727811997341e-09

 413	4.005000000000023e-09
	8.612700690578652e-08

 414	4.015000000000023e-09
	7.378999514394705e-09

 415	4.025000000000023e-09
	8.541454831424160e-08

 416	4.035000000000023e-09
	7.624412212213636e-09

 417	4.045000000000022e-09
	8.471621543710493e-08

 418	4.055000000000022e-09
	7.865106290433369e-09

 419	4.065000000000022e-09
	8.403160327489549e-08

 420	4.075000000000022e-09
	8.101210918241626e-09

 421	4.085000000000021e-09
	8.336033014034957e-08

 422	4.095000000000021e-09
	8.332852954530938e-09

 423	4.105000000000021e-09
	8.270201928495533e-08

 424	4.115000000000021e-09
	8.560147983164048e-09

 425	4.125000000000020e-09
	8.205631026678683e-08

 426	4.135000000000020e-09
	8.783213720583587e-09

 427	4.145000000000020e-09
	8.142285926597515e-08

 428	4.155000000000020e-09
	9.002167863485908e-09

 429	4.165000000000019e-09
	8.080133641952292e-08

 430	4.175000000000019e-09
	9.217118353988276e-09

 431	4.185000000000019e-09
	8.019141590028495e-08

 432	4.195000000000019e-09
	9.428164900079404e-09

 433	4.205000000000018e-09
	7.959278680615673e-08

 434	4.215000000000018e-09
	9.635413015104645e-09

 435	4.225000000000018e-09
	7.900515284460413e-08

 436	4.235000000000018e-09
	9.838957470524730e-09

 437	4.245000000000017e-09
	7.842822094307199e-08

 438	4.255000000000017e-09
	1.003889323526141e-08

 439	4.265000000000017e-09
	7.786171544517951e-08

 440	4.275000000000017e-09
	1.023531047005831e-08

 441	4.285000000000017e-09
	7.730536557890638e-08

 442	4.295000000000016e-09
	1.042830177430373e-08

 443	4.305000000000016e-09
	7.675891324546390e-08

 444	4.315000000000016e-09
	1.061794819591081e-08

 445	4.325000000000016e-09
	7.622210587224391e-08

 446	4.335000000000015e-09
	1.080433155289103e-08

 447	4.345000000000015e-09
	7.569469912151908e-08

 448	4.355000000000015e-09
	1.098753529230999e-08

 449	4.365000000000015e-09
	7.517646249277247e-08

 450	4.375000000000014e-09
	1.116763432104018e-08

 451	4.385000000000014e-09
	7.466716629048162e-08

 452	4.395000000000014e-09
	1.134470231182208e-08

 453	4.405000000000014e-09
	7.416658840130619e-08

 454	4.415000000000013e-09
	1.151881120961142e-08

 455	4.425000000000013e-09
	7.367452311639721e-08

 456	4.435000000000013e-09
	1.169003551648541e-08

 457	4.445000000000013e-09
	7.319076203996325e-08

 458	4.455000000000012e-09
	1.185843858784135e-08

 459	4.465000000000012e-09
	7.271510566379188e-08

 460	4.475000000000012e-09
	1.202408590178355e-08

 461	4.485000000000012e-09
	7.224736047361962e-08

 462	4.495000000000011e-09
	1.218704064586739e-08

 463	4.505000000000011e-09
	7.178734228877288e-08

 464	4.515000000000011e-09
	1.234736641244361e-08

 465	4.525000000000011e-09
	7.133487048578553e-08

 466	4.535000000000010e-09
	1.250512472052118e-08

 467	4.545000000000010e-09
	7.088977233884472e-08

 468	4.555000000000010e-09
	1.266037309052162e-08

 469	4.565000000000010e-09
	7.045187564429619e-08

 470	4.575000000000010e-09
	1.281316353370139e-08

 471	4.585000000000009e-09
	7.002101560661473e-08

 472	4.595000000000009e-09
	1.296355296822560e-08

 473	4.605000000000009e-09
	6.959703352212927e-08

 474	4.615000000000009e-09
	1.311159222058409e-08

 475	4.625000000000008e-09
	6.917977546274639e-08

 476	4.635000000000008e-09
	1.325733519766005e-08

 477	4.645000000000008e-09
	6.876908983920986e-08

 478	4.655000000000008e-09
	1.340083283454694e-08

 479	4.665000000000007e-09
	6.836483631043593e-08

 480	4.675000000000007e-09
	1.354213016225100e-08

 481	4.685000000000007e-09
	6.796686793220625e-08

 482	4.695000000000007e-09
	1.368127584506292e-08

 483	4.705000000000006e-09
	6.757505210879417e-08

 484	4.715000000000006e-09
	1.381831646405872e-08

 485	4.725000000000006e-09
	6.718925329645073e-08

 486	4.735000000000006e-09
	1.395329391061295e-08

 487	4.745000000000005e-09
	6.680934160814835e-08

 488	4.755000000000005e-09
	1.408625277144444e-08

 489	4.765000000000005e-09
	6.643519403195141e-08

 490	4.775000000000005e-09
	1.421723852184699e-08

 491	4.785000000000004e-09
	6.606668899186158e-08

 492	4.795000000000004e-09
	1.434628786984107e-08

 493	4.805000000000004e-09
	6.570370492275850e-08

 494	4.815000000000004e-09
	1.447344020891822e-08

 495	4.825000000000004e-09
	6.534612901656172e-08

 496	4.835000000000003e-09
	1.459873608771762e-08

 497	4.845000000000003e-09
	6.499384809532841e-08

 498	4.855000000000003e-09
	1.472221135530391e-08

 499	4.865000000000003e-09
	6.464675097184635e-08

 500	4.875000000000002e-09
	1.484390397357566e-08

 501	4.885000000000002e-09
	6.430473745687508e-08

 502	4.895000000000002e-09
	1.496385092699900e-08

 503	4.905000000000002e-09
	6.396769816900230e-08

 504	4.915000000000001e-09
	1.508208272331552e-08

 505	4.925000000000001e-09
	6.363553530133735e-08

 506	4.935000000000001e-09
	1.519863587308470e-08

 507	4.945000000000001e-09
	6.330815329880010e-08

 508	4.955000000000000e-09
	1.531354604765634e-08

 509	4.965000000000000e-09
	6.298545247255276e-08

 510	4.975000000000000e-09
	1.542683933164311e-08

 511	4.985000000000000e-09
	6.266734385977109e-08

 512	4.994999999999999e-09
	1.553855264039989e-08

 513	5.004999999999999e-09
	6.235373503832865e-08

 514	5.014999999999999e-09
	1.564871232511192e-08

 515	5.024999999999999e-09
	6.204453764370852e-08

 516	5.034999999999998e-09
	1.575734928844316e-08

 517	5.044999999999998e-09
	6.173966693387114e-08

 518	5.054999999999998e-09
	1.586449440343844e-08

 519	5.064999999999998e-09
	6.143903863454461e-08

 520	5.074999999999997e-09
	1.597017273778583e-08

 521	5.084999999999997e-09
	6.114257332318293e-08

 522	5.094999999999997e-09
	1.607441629993161e-08

 523	5.104999999999997e-09
	6.085018829199120e-08

 524	5.114999999999997e-09
	1.617724681059799e-08

 525	5.124999999999996e-09
	6.056180807812840e-08

 526	5.134999999999996e-09
	1.627869530079878e-08

 527	5.144999999999996e-09
	6.027735753422528e-08

 528	5.154999999999996e-09
	1.637878532764461e-08

 529	5.164999999999995e-09
	5.999676176311329e-08

 530	5.174999999999995e-09
	1.647754210691950e-08

 531	5.184999999999995e-09
	5.971994794538148e-08

 532	5.194999999999995e-09
	1.657498710264628e-08

 533	5.204999999999994e-09
	5.944684734098498e-08

 534	5.214999999999994e-09
	1.667115171114190e-08

 535	5.224999999999994e-09
	5.917739144920228e-08

 536	5.234999999999994e-09
	1.676605111716581e-08

 537	5.244999999999993e-09
	5.891151145384045e-08

 538	5.254999999999993e-09
	1.685971127698127e-08

 539	5.264999999999993e-09
	5.864914136706760e-08

 540	5.274999999999993e-09
	1.695215459255148e-08

 541	5.284999999999992e-09
	5.839022053142373e-08

 542	5.294999999999992e-09
	1.704340576626165e-08

 543	5.304999999999992e-09
	5.813468516737400e-08

 544	5.314999999999992e-09
	1.713348042715881e-08

 545	5.324999999999991e-09
	5.788247287692876e-08

 546	5.334999999999991e-09
	1.722240263587956e-08

 547	5.344999999999991e-09
	5.763352603767700e-08

 548	5.354999999999991e-09
	1.731019292837965e-08

 549	5.364999999999990e-09
	5.738778602640292e-08

 550	5.374999999999990e-09
	1.739687104089733e-08

 551	5.384999999999990e-09
	5.714519569934107e-08

 552	5.394999999999990e-09
	1.748245584084191e-08

 553	5.404999999999990e-09
	5.690569754286352e-08

 554	5.414999999999989e-09
	1.756696385570856e-08

 555	5.424999999999989e-09
	5.666923965655035e-08

 556	5.434999999999989e-09
	1.765041852413145e-08

 557	5.444999999999989e-09
	5.643576899775935e-08

 558	5.454999999999988e-09
	1.773283576147629e-08

 559	5.464999999999988e-09
	5.620523140338219e-08

 560	5.474999999999988e-09
	1.781423283571743e-08

 561	5.484999999999988e-09
	5.597757967242911e-08

 562	5.494999999999987e-09
	1.789462976941180e-08

 563	5.504999999999987e-09
	5.575275972881869e-08

 564	5.514999999999987e-09
	1.797403892362508e-08

 565	5.524999999999987e-09
	5.553072255488347e-08

 566	5.534999999999986e-09
	1.805247893868638e-08

 567	5.544999999999986e-09
	5.531142317968737e-08

 568	5.554999999999986e-09
	1.812996924476932e-08

 569	5.564999999999986e-09
	5.509481603398761e-08

 570	5.574999999999985e-09
	1.820652239052769e-08

 571	5.584999999999985e-09
	5.488085512428701e-08

 572	5.594999999999985e-09
	1.828215657200311e-08

 573	5.604999999999985e-09
	5.466949312993496e-08

 574	5.614999999999984e-09
	1.835688448594519e-08

 575	5.624999999999984e-09
	5.446068574357272e-08

 576	5.634999999999984e-09
	1.843072304489835e-08

 577	5.644999999999984e-09
	5.425439440158906e-08

 578	5.654999999999983e-09
	1.850368554786865e-08

 579	5.664999999999983e-09
	5.405057295819092e-08

 580	5.674999999999983e-09
	1.857578668596295e-08

 581	5.684999999999983e-09
	5.384918131592568e-08

 582	5.694999999999983e-09
	1.864704041968206e-08

 583	5.704999999999982e-09
	5.365018158563761e-08

 584	5.714999999999982e-09